# FILE HEADER 
TITLE = ASCII_SOLUTION_TEST2
FILETYPE = GRID
VARIABLES = X

# ZONE HEADER 
ZONE 
T = ASCII_SOLUTION_TEST2_GRID
ZONETYPE =  FELINESEG
NODES = 3
ELEMENTS = 2
DATAPACKING = BLOCK 

# VARIABLE DATA 
1.000000e+00  2.000000e+00  3.000000e+00  

# CONNECTIVITY 
1 2 
2 3 
