# FILE HEADER 
TITLE = ASCII_SOLUTION_TEST2
FILETYPE = SOLUTION
VARIABLES = A

# ZONE HEADER 
ZONE 
T = ASCII_SOLUTION_TEST2_SOL0
ZONETYPE =  FELINESEG
NODES = 3
ELEMENTS = 2
DATAPACKING = BLOCK 
VARLOCATION = ([1] = CELLCENTERED)
STRANDID = 0
SOLUTIONTIME = 1.000000

# VARIABLE DATA 
1.0000000000e+00  2.0000000000e+00  

