# FILE HEADER 
TITLE = ASCII_SOLUTION_TEST1
FILETYPE = GRID
VARIABLES = X,Y

# ZONE HEADER 
ZONE 
T = ASCII_SOLUTION_TEST1_GRID
ZONETYPE =  FETRIANGLE
NODES = 4
ELEMENTS = 2
DATAPACKING = BLOCK 

# VARIABLE DATA 
1.000000e+00  2.000000e+00  1.000000e+00  2.000000e+00  

1.000000e+00  1.000000e+00  2.000000e+00  2.000000e+00  

# CONNECTIVITY 
1 2 4 
1 4 3 
