# FILE HEADER 
TITLE = ASCII_SOLUTION_TEST1
FILETYPE = SOLUTION
VARIABLES = A,B,C,D

# ZONE HEADER 
ZONE 
T = ASCII_SOLUTION_TEST1_SOL0
ZONETYPE =  FETRIANGLE
NODES = 4
ELEMENTS = 2
DATAPACKING = BLOCK 
VARLOCATION = ([2,4] = CELLCENTERED)
STRANDID = 0
SOLUTIONTIME = 1.000000

# VARIABLE DATA 
1.0000000000e+00  2.0000000000e+00  3.0000000000e+00  4.0000000000e+00  

-1.0000000000e+00 -2.0000000000e+00 

1.1000000000e+01  1.2000000000e+01  1.3000000000e+01  1.4000000000e+01  

2.0000000000e+01  3.0000000000e+01  

